nqpoint: 707    
npath: 7      
segment_nqpoint:
- 101
- 101
- 101
- 101
- 101
- 101
- 101
labels:
- [ 'G', 'Y' ]
- [ 'Y', 'V' ]
- [ 'V', 'G' ]
- [ 'G', 'A' ]
- [ 'A', 'M' ]
- [ 'M', 'L' ]
- [ 'L', 'V' ]
reciprocal_lattice:
- [   0.07628885,   0.13229761,   0.02712297 ] # a*
- [  -0.07628885,   0.13229761,  -0.02712297 ] # b*
- [  -0.00000000,  -0.00000000,   0.08092246 ] # c*
natom: 44     
lattice:
- [     6.554037687165607,     3.779357676691510,     0.000000000000001 ] # a
- [    -6.554037687165607,     3.779357676691510,     0.000000000000000 ] # b
- [    -4.393464219559046,     0.000000000000000,    12.357509319601613 ] # c
points:
- symbol: Bi # 1
  coordinates: [  0.509087323072751,  0.460725961535810,  0.011329998818214 ]
  mass: 208.980400
- symbol: Bi # 2
  coordinates: [  0.539274038464190,  0.490912676927249,  0.511329998818214 ]
  mass: 208.980400
- symbol: Bi # 3
  coordinates: [  0.009485140325471,  0.030589019862818,  0.510137090637778 ]
  mass: 208.980400
- symbol: Bi # 4
  coordinates: [  0.969410980137182,  0.990514859674529,  0.010137090637778 ]
  mass: 208.980400
- symbol: Bi # 5
  coordinates: [  0.031158166988896,  0.536779934834991,  0.979276769007944 ]
  mass: 208.980400
- symbol: Bi # 6
  coordinates: [  0.463220065165009,  0.968841833011104,  0.479276769007944 ]
  mass: 208.980400
- symbol: Bi # 7
  coordinates: [  0.723515241405577,  0.771029304646137,  0.748691042520599 ]
  mass: 208.980400
- symbol: Bi # 8
  coordinates: [  0.228970695353863,  0.276484758594423,  0.248691042520600 ]
  mass: 208.980400
- symbol: Sn # 9
  coordinates: [  0.754204687192165,  0.252781774133294,  0.750953800019158 ]
  mass: 118.710000
- symbol: Sn # 10
  coordinates: [  0.747218225866705,  0.245795312807835,  0.250953800019158 ]
  mass: 118.710000
- symbol: Sn # 11
  coordinates: [  0.246317782292282,  0.752684478432389,  0.242081531890413 ]
  mass: 118.710000
- symbol: Sn # 12
  coordinates: [  0.247315521567610,  0.753682217707718,  0.742081531890413 ]
  mass: 118.710000
- symbol: Sn # 13
  coordinates: [  0.251855061797286,  0.253237397452086,  0.747727411621317 ]
  mass: 118.710000
- symbol: Sn # 14
  coordinates: [  0.746762602547914,  0.748144938202714,  0.247727411621317 ]
  mass: 118.710000
- symbol: Sn # 15
  coordinates: [  0.997760957738408,  0.501684827186220,  0.495603752518609 ]
  mass: 118.710000
- symbol: Sn # 16
  coordinates: [  0.498315172813780,  0.002239042261592,  0.995603752518608 ]
  mass: 118.710000
- symbol: O  # 17
  coordinates: [  0.957629000629294,  0.127401640231389,  0.782943373026999 ]
  mass: 15.999400
- symbol: O  # 18
  coordinates: [  0.872598359768611,  0.042370999370706,  0.282943373026999 ]
  mass: 15.999400
- symbol: O  # 19
  coordinates: [  0.449500985766808,  0.626370607255817,  0.277414797211052 ]
  mass: 15.999400
- symbol: O  # 20
  coordinates: [  0.373629392744183,  0.550499014233192,  0.777414797211052 ]
  mass: 15.999400
- symbol: O  # 21
  coordinates: [  0.643818126056375,  0.235437988659891,  0.086939670684582 ]
  mass: 15.999400
- symbol: O  # 22
  coordinates: [  0.764562011340109,  0.356181873943625,  0.586939670684582 ]
  mass: 15.999400
- symbol: O  # 23
  coordinates: [  0.171494015890392,  0.749239989548074,  0.578191146787559 ]
  mass: 15.999400
- symbol: O  # 24
  coordinates: [  0.250760010451926,  0.828505984109608,  0.078191146787558 ]
  mass: 15.999400
- symbol: O  # 25
  coordinates: [  0.970805030182510,  0.536162198484495,  0.793052936679725 ]
  mass: 15.999400
- symbol: O  # 26
  coordinates: [  0.463837801515504,  0.029194969817490,  0.293052936679725 ]
  mass: 15.999400
- symbol: O  # 27
  coordinates: [  0.671024134948668,  0.845907672369160,  0.081609789054798 ]
  mass: 15.999400
- symbol: O  # 28
  coordinates: [  0.154092327630840,  0.328975865051332,  0.581609789054797 ]
  mass: 15.999400
- symbol: O  # 29
  coordinates: [  0.747822840690533,  0.161472923614881,  0.914923720579562 ]
  mass: 15.999400
- symbol: O  # 30
  coordinates: [  0.838527076385119,  0.252177159309467,  0.414923720579562 ]
  mass: 15.999400
- symbol: O  # 31
  coordinates: [  0.233529244316558,  0.678940036656956,  0.406511582992342 ]
  mass: 15.999400
- symbol: O  # 32
  coordinates: [  0.321059963343044,  0.766470755683441,  0.906511582992342 ]
  mass: 15.999400
- symbol: O  # 33
  coordinates: [  0.634218906278423,  0.462094222553945,  0.203479973159984 ]
  mass: 15.999400
- symbol: O  # 34
  coordinates: [  0.537905777446055,  0.365781093721578,  0.703479973159984 ]
  mass: 15.999400
- symbol: O  # 35
  coordinates: [  0.136487216671886,  0.969598134804304,  0.699543315888252 ]
  mass: 15.999400
- symbol: O  # 36
  coordinates: [  0.030401865195696,  0.863512783328115,  0.199543315888252 ]
  mass: 15.999400
- symbol: O  # 37
  coordinates: [  0.040798155014211,  0.452862812745705,  0.214976658093538 ]
  mass: 15.999400
- symbol: O  # 38
  coordinates: [  0.547137187254295,  0.959201844985789,  0.714976658093537 ]
  mass: 15.999400
- symbol: O  # 39
  coordinates: [  0.354084425508600,  0.185013011484887,  0.910502697611228 ]
  mass: 15.999400
- symbol: O  # 40
  coordinates: [  0.814986988515113,  0.645915574491400,  0.410502697611228 ]
  mass: 15.999400
- symbol: O  # 41
  coordinates: [  0.806379927169874,  0.687942420812443,  0.939444081193767 ]
  mass: 15.999400
- symbol: O  # 42
  coordinates: [  0.312057579187557,  0.193620072830126,  0.439444081193767 ]
  mass: 15.999400
- symbol: O  # 43
  coordinates: [  0.183595980150729,  0.318306750572880,  0.063525775807795 ]
  mass: 15.999400
- symbol: O  # 44
  coordinates: [  0.681693249427120,  0.816404019849272,  0.563525775807794 ]
  mass: 15.999400
supercell_matrix:
- [    3,    2,   -1 ]
- [   -1,    2,   -3 ]
- [    0,    1,    1 ]

phonon:
- q-position: [    0.0000000,    0.0000000,    0.0000000 ]
  distance:    0.0000000
  band:
  - # 1
    frequency:   -0.0031318488
  - # 2
    frequency:   -0.0014315140
  - # 3
    frequency:    0.0013412014
  - # 4
    frequency:    1.0640629419
  - # 5
    frequency:    1.3085928357
  - # 6
    frequency:    1.3539161716
  - # 7
    frequency:    1.5455778209
  - # 8
    frequency:    1.6825563594
  - # 9
    frequency:    1.8260366806
  - # 10
    frequency:    1.9454563935
  - # 11
    frequency:    2.0261889085
  - # 12
    frequency:    2.1039359932
  - # 13
    frequency:    2.2671639516
  - # 14
    frequency:    2.3188558365
  - # 15
    frequency:    2.3237306346
  - # 16
    frequency:    2.4018644869
  - # 17
    frequency:    2.4230982350
  - # 18
    frequency:    2.4300942151
  - # 19
    frequency:    2.5998479703
  - # 20
    frequency:    2.6016368070
  - # 21
    frequency:    2.6332301225
  - # 22
    frequency:    2.6466101455
  - # 23
    frequency:    2.7253462682
  - # 24
    frequency:    2.9218512557
  - # 25
    frequency:    2.9559348101
  - # 26
    frequency:    3.2457959873
  - # 27
    frequency:    3.3590526967
  - # 28
    frequency:    3.9472213210
  - # 29
    frequency:    3.9682583107
  - # 30
    frequency:    4.1793590216
  - # 31
    frequency:    4.2337416118
  - # 32
    frequency:    4.4308968891
  - # 33
    frequency:    4.4776988255
  - # 34
    frequency:    4.5130470308
  - # 35
    frequency:    4.5975949200
  - # 36
    frequency:    4.6332026579
  - # 37
    frequency:    4.6919515486
  - # 38
    frequency:    4.7351206395
  - # 39
    frequency:    4.8245187366
  - # 40
    frequency:    4.8489280022
  - # 41
    frequency:    4.8763200993
  - # 42
    frequency:    5.0958816812
  - # 43
    frequency:    5.1441711746
  - # 44
    frequency:    5.1933846809
  - # 45
    frequency:    5.3266496265
  - # 46
    frequency:    5.3513438421
  - # 47
    frequency:    5.5024200988
  - # 48
    frequency:    5.5959702773
  - # 49
    frequency:    5.6194186962
  - # 50
    frequency:    5.8123452800
  - # 51
    frequency:    5.8192260694
  - # 52
    frequency:    5.9096390502
  - # 53
    frequency:    5.9398611391
  - # 54
    frequency:    6.3838736883
  - # 55
    frequency:    6.4409548899
  - # 56
    frequency:    6.5889905738
  - # 57
    frequency:    6.7148830407
  - # 58
    frequency:    6.7482627570
  - # 59
    frequency:    6.8590089069
  - # 60
    frequency:    6.9467150851
  - # 61
    frequency:    7.1035675165
  - # 62
    frequency:    7.1165913268
  - # 63
    frequency:    7.4296533856
  - # 64
    frequency:    7.4870880738
  - # 65
    frequency:    7.5335409665
  - # 66
    frequency:    7.5988158560
  - # 67
    frequency:    7.6672377582
  - # 68
    frequency:    7.9973953320
  - # 69
    frequency:    8.0849106990
  - # 70
    frequency:    8.4103063213
  - # 71
    frequency:    8.4363290306
  - # 72
    frequency:    8.5567364137
  - # 73
    frequency:    8.6563671014
  - # 74
    frequency:    8.8438605678
  - # 75
    frequency:    9.1427862471
  - # 76
    frequency:    9.3224423019
  - # 77
    frequency:    9.3865367471
  - # 78
    frequency:    9.5973944744
  - # 79
    frequency:    9.8244178386
  - # 80
    frequency:    9.8272279847
  - # 81
    frequency:   10.0049344303
  - # 82
    frequency:   10.1435891001
  - # 83
    frequency:   10.2800590701
  - # 84
    frequency:   10.4526632595
  - # 85
    frequency:   10.5495535848
  - # 86
    frequency:   10.7140762189
  - # 87
    frequency:   10.7531666598
  - # 88
    frequency:   11.0699133301
  - # 89
    frequency:   11.0952578140
  - # 90
    frequency:   11.1928155623
  - # 91
    frequency:   11.2548378997
  - # 92
    frequency:   11.3467347736
  - # 93
    frequency:   11.3909165441
  - # 94
    frequency:   11.5105733255
  - # 95
    frequency:   11.6989389646
  - # 96
    frequency:   11.7565035512
  - # 97
    frequency:   11.8659187711
  - # 98
    frequency:   13.3758007096
  - # 99
    frequency:   13.7192112310
  - # 100
    frequency:   13.7844436148
  - # 101
    frequency:   13.9878389204
  - # 102
    frequency:   13.9889224975
  - # 103
    frequency:   14.1752396919
  - # 104
    frequency:   14.1778943809
  - # 105
    frequency:   14.2968365253
  - # 106
    frequency:   14.5204855202
  - # 107
    frequency:   14.5216693439
  - # 108
    frequency:   14.8603205335
  - # 109
    frequency:   15.1073631182
  - # 110
    frequency:   15.1707661840
  - # 111
    frequency:   15.2078988334
  - # 112
    frequency:   15.3889997798
  - # 113
    frequency:   16.0643203494
  - # 114
    frequency:   16.2581960517
  - # 115
    frequency:   17.2568546029
  - # 116
    frequency:   17.3923442021
  - # 117
    frequency:   17.3983315426
  - # 118
    frequency:   17.4875336834
  - # 119
    frequency:   17.4908505408
  - # 120
    frequency:   18.3785523833
  - # 121
    frequency:   18.7415788243
  - # 122
    frequency:   18.7949136890
  - # 123
    frequency:   19.4005772953
  - # 124
    frequency:   19.5144595550
  - # 125
    frequency:   19.6102999704
  - # 126
    frequency:   19.7408685422
  - # 127
    frequency:   20.4688933874
  - # 128
    frequency:   20.7058922379
  - # 129
    frequency:   20.7745378602
  - # 130
    frequency:   20.7921505848
  - # 131
    frequency:   21.0479373216
  - # 132
    frequency:   21.2325538222

- q-position: [    0.0050000,    0.0050000,    0.0000000 ]
  distance:    0.0013230
  band:
  - # 1
    frequency:    0.0239663271
  - # 2
    frequency:    0.0343393636
  - # 3
    frequency:    0.0713054375
  - # 4
    frequency:    1.0639423340
  - # 5
    frequency:    1.3085836277
  - # 6
    frequency:    1.3538533553
  - # 7
    frequency:    1.5458123389
  - # 8
    frequency:    1.6826005545
  - # 9
    frequency:    1.8260254182
  - # 10
    frequency:    1.9454973679
  - # 11
    frequency:    2.0262878386
  - # 12
    frequency:    2.1044791958
  - # 13
    frequency:    2.2670047499
  - # 14
    frequency:    2.3186498790
  - # 15
    frequency:    2.3240130700
  - # 16
    frequency:    2.4021636452
  - # 17
    frequency:    2.4212362240
  - # 18
    frequency:    2.4326450016
  - # 19
    frequency:    2.5978468654
  - # 20
    frequency:    2.6044812740
  - # 21
    frequency:    2.6323184428
  - # 22
    frequency:    2.6478438830
  - # 23
    frequency:    2.7254671298
  - # 24
    frequency:    2.9217905501
  - # 25
    frequency:    2.9561553993
  - # 26
    frequency:    3.2464394324
  - # 27
    frequency:    3.3594571763
  - # 28
    frequency:    3.9465551555
  - # 29
    frequency:    3.9689021919
  - # 30
    frequency:    4.1793072837
  - # 31
    frequency:    4.2337927049
  - # 32
    frequency:    4.4310463920
  - # 33
    frequency:    4.4776084127
  - # 34
    frequency:    4.5134204374
  - # 35
    frequency:    4.5987954732
  - # 36
    frequency:    4.6349758501
  - # 37
    frequency:    4.6918687786
  - # 38
    frequency:    4.7350290826
  - # 39
    frequency:    4.8248113865
  - # 40
    frequency:    4.8491294451
  - # 41
    frequency:    4.8775009252
  - # 42
    frequency:    5.0952184635
  - # 43
    frequency:    5.1441105326
  - # 44
    frequency:    5.1941101613
  - # 45
    frequency:    5.3270837277
  - # 46
    frequency:    5.3519502772
  - # 47
    frequency:    5.5027407952
  - # 48
    frequency:    5.5959593013
  - # 49
    frequency:    5.6196995153
  - # 50
    frequency:    5.8124536714
  - # 51
    frequency:    5.8200454138
  - # 52
    frequency:    5.9107598110
  - # 53
    frequency:    5.9402361088
  - # 54
    frequency:    6.3838770486
  - # 55
    frequency:    6.4410050324
  - # 56
    frequency:    6.5886686182
  - # 57
    frequency:    6.7159552647
  - # 58
    frequency:    6.7486305144
  - # 59
    frequency:    6.8588867006
  - # 60
    frequency:    6.9474968247
  - # 61
    frequency:    7.1029055085
  - # 62
    frequency:    7.1171243105
  - # 63
    frequency:    7.4280273124
  - # 64
    frequency:    7.4866366618
  - # 65
    frequency:    7.5347721111
  - # 66
    frequency:    7.5995213376
  - # 67
    frequency:    7.6672578111
  - # 68
    frequency:    7.9971048612
  - # 69
    frequency:    8.0850241877
  - # 70
    frequency:    8.4100334928
  - # 71
    frequency:    8.4360546927
  - # 72
    frequency:    8.5569550609
  - # 73
    frequency:    8.6562672818
  - # 74
    frequency:    8.8438975314
  - # 75
    frequency:    9.1422970503
  - # 76
    frequency:    9.3230858388
  - # 77
    frequency:    9.3864906710
  - # 78
    frequency:    9.5970141125
  - # 79
    frequency:    9.8247611677
  - # 80
    frequency:    9.8281820263
  - # 81
    frequency:   10.0049547913
  - # 82
    frequency:   10.1434803971
  - # 83
    frequency:   10.2798359422
  - # 84
    frequency:   10.4526972165
  - # 85
    frequency:   10.5495380276
  - # 86
    frequency:   10.7142977855
  - # 87
    frequency:   10.7530415739
  - # 88
    frequency:   11.0687136166
  - # 89
    frequency:   11.0962286529
  - # 90
    frequency:   11.1929059076
  - # 91
    frequency:   11.2546584971
  - # 92
    frequency:   11.3468502898
  - # 93
    frequency:   11.3906625224
  - # 94
    frequency:   11.5107383452
  - # 95
    frequency:   11.6988888506
  - # 96
    frequency:   11.7564766144
  - # 97
    frequency:   11.8658383514
  - # 98
    frequency:   13.3758994307
  - # 99
    frequency:   13.7188800286
  - # 100
    frequency:   13.7843690932
  - # 101
    frequency:   13.9852433488
  - # 102
    frequency:   13.9914336175
  - # 103
    frequency:   14.1719033692
  - # 104
    frequency:   14.1810438747
  - # 105
    frequency:   14.2970732142
  - # 106
    frequency:   14.5145923123
  - # 107
    frequency:   14.5277870679
  - # 108
    frequency:   14.8605596561
  - # 109
    frequency:   15.1074012483
  - # 110
    frequency:   15.1704063583
  - # 111
    frequency:   15.2085823717
  - # 112
    frequency:   15.3897916517
  - # 113
    frequency:   16.0641681799
  - # 114
    frequency:   16.2581122115
  - # 115
    frequency:   17.2564380157
  - # 116
    frequency:   17.3920524225
  - # 117
    frequency:   17.3993960750
  - # 118
    frequency:   17.4822907122
  - # 119
    frequency:   17.4970678669
  - # 120
    frequency:   18.3764261856
  - # 121
    frequency:   18.7349501480
  - # 122
    frequency:   18.8038113832
  - # 123
    frequency:   19.4001409321
  - # 124
    frequency:   19.5142368527
  - # 125
    frequency:   19.6097321729
  - # 126
    frequency:   19.7406005787
  - # 127
    frequency:   20.4689650798
  - # 128
    frequency:   20.7061297599
  - # 129
    frequency:   20.7732202851
  - # 130
    frequency:   20.7936683765
  - # 131
    frequency:   21.0475854500
  - # 132
    frequency:   21.2329145653

- q-position: [    0.0100000,    0.0100000,    0.0000000 ]
  distance:    0.0026460
  band:
  - # 1
    frequency:    0.0613330827
  - # 2
    frequency:    0.0728826406
  - # 3
    frequency:    0.1351924132
  - # 4
    frequency:    1.0635840017
  - # 5
    frequency:    1.3085533364
  - # 6
    frequency:    1.3536652095
  - # 7
    frequency:    1.5465095447
  - # 8
    frequency:    1.6827389029
  - # 9
    frequency:    1.8259858707
  - # 10
    frequency:    1.9456287222
  - # 11
    frequency:    2.0265737159
  - # 12
    frequency:    2.1060817747
  - # 13
    frequency:    2.2665228743
  - # 14
    frequency:    2.3181252786
  - # 15
    frequency:    2.3247128909
  - # 16
    frequency:    2.4031224075
  - # 17
    frequency:    2.4184019340
  - # 18
    frequency:    2.4375955963
  - # 19
    frequency:    2.5959076276
  - # 20
    frequency:    2.6085546215
  - # 21
    frequency:    2.6306239468
  - # 22
    frequency:    2.6508574290
  - # 23
    frequency:    2.7258379909
  - # 24
    frequency:    2.9216331331
  - # 25
    frequency:    2.9568074829
  - # 26
    frequency:    3.2483476556
  - # 27
    frequency:    3.3606714004
  - # 28
    frequency:    3.9447452139
  - # 29
    frequency:    3.9706480435
  - # 30
    frequency:    4.1791472039
  - # 31
    frequency:    4.2339516319
  - # 32
    frequency:    4.4314850466
  - # 33
    frequency:    4.4773205592
  - # 34
    frequency:    4.5145976713
  - # 35
    frequency:    4.6021888720
  - # 36
    frequency:    4.6402558479
  - # 37
    frequency:    4.6916508109
  - # 38
    frequency:    4.7347663525
  - # 39
    frequency:    4.8257216630
  - # 40
    frequency:    4.8497795258
  - # 41
    frequency:    4.8810171169
  - # 42
    frequency:    5.0933217540
  - # 43
    frequency:    5.1439456393
  - # 44
    frequency:    5.1962025963
  - # 45
    frequency:    5.3284163048
  - # 46
    frequency:    5.3537180569
  - # 47
    frequency:    5.5036950960
  - # 48
    frequency:    5.5959451600
  - # 49
    frequency:    5.6205340514
  - # 50
    frequency:    5.8127948309
  - # 51
    frequency:    5.8224826738
  - # 52
    frequency:    5.9140850825
  - # 53
    frequency:    5.9413807663
  - # 54
    frequency:    6.3838814849
  - # 55
    frequency:    6.4411673706
  - # 56
    frequency:    6.5877637122
  - # 57
    frequency:    6.7191046368
  - # 58
    frequency:    6.7497391053
  - # 59
    frequency:    6.8585544851
  - # 60
    frequency:    6.9498044230
  - # 61
    frequency:    7.1011514724
  - # 62
    frequency:    7.1184934858
  - # 63
    frequency:    7.4232940686
  - # 64
    frequency:    7.4856656595
  - # 65
    frequency:    7.5378604274
  - # 66
    frequency:    7.6017206096
  - # 67
    frequency:    7.6673192525
  - # 68
    frequency:    7.9962437642
  - # 69
    frequency:    8.0853584732
  - # 70
    frequency:    8.4092175573
  - # 71
    frequency:    8.4352450028
  - # 72
    frequency:    8.5575981758
  - # 73
    frequency:    8.6559676995
  - # 74
    frequency:    8.8440047073
  - # 75
    frequency:    9.1408427159
  - # 76
    frequency:    9.3249983087
  - # 77
    frequency:    9.3863514891
  - # 78
    frequency:    9.5958900093
  - # 79
    frequency:    9.8257844924
  - # 80
    frequency:    9.8310370299
  - # 81
    frequency:   10.0050134043
  - # 82
    frequency:   10.1431598463
  - # 83
    frequency:   10.2791720934
  - # 84
    frequency:   10.4527958366
  - # 85
    frequency:   10.5494913202
  - # 86
    frequency:   10.7149599686
  - # 87
    frequency:   10.7526699393
  - # 88
    frequency:   11.0655422979
  - # 89
    frequency:   11.0987098001
  - # 90
    frequency:   11.1931644214
  - # 91
    frequency:   11.2541419362
  - # 92
    frequency:   11.3471924881
  - # 93
    frequency:   11.3899060351
  - # 94
    frequency:   11.5112327901
  - # 95
    frequency:   11.6987380481
  - # 96
    frequency:   11.7563996424
  - # 97
    frequency:   11.8655975850
  - # 98
    frequency:   13.3761923484
  - # 99
    frequency:   13.7178875807
  - # 100
    frequency:   13.7841464019
  - # 101
    frequency:   13.9820449062
  - # 102
    frequency:   13.9943801005
  - # 103
    frequency:   14.1673379285
  - # 104
    frequency:   14.1850543680
  - # 105
    frequency:   14.2977816554
  - # 106
    frequency:   14.5083882376
  - # 107
    frequency:   14.5346657709
  - # 108
    frequency:   14.8612742152
  - # 109
    frequency:   15.1075229118
  - # 110
    frequency:   15.1694060051
  - # 111
    frequency:   15.2105555405
  - # 112
    frequency:   15.3921600643
  - # 113
    frequency:   16.0637163840
  - # 114
    frequency:   16.2578576485
  - # 115
    frequency:   17.2552275833
  - # 116
    frequency:   17.3913574373
  - # 117
    frequency:   17.4023603468
  - # 118
    frequency:   17.4766733583
  - # 119
    frequency:   17.5056130899
  - # 120
    frequency:   18.3701419388
  - # 121
    frequency:   18.7217633574
  - # 122
    frequency:   18.8237111074
  - # 123
    frequency:   19.3988303511
  - # 124
    frequency:   19.5135700915
  - # 125
    frequency:   19.6080313436
  - # 126
    frequency:   19.7398012587
  - # 127
    frequency:   20.4691759755
  - # 128
    frequency:   20.7068380377
  - # 129
    frequency:   20.7701528588
  - # 130
    frequency:   20.7973393684
  - # 131
    frequency:   21.0465439170
  - # 132
    frequency:   21.2339840629

- q-position: [    0.0150000,    0.0150000,    0.0000000 ]
  distance:    0.0039689
  band:
  - # 1
    frequency:    0.0941104098
  - # 2
    frequency:    0.1121339069
  - # 3
    frequency:    0.2000026416
  - # 4
    frequency:    1.0629986988
  - # 5
    frequency:    1.3084941361
  - # 6
    frequency:    1.3533527637
  - # 7
    frequency:    1.5476505242
  - # 8
    frequency:    1.6829883087
  - # 9
    frequency:    1.8259018512
  - # 10
    frequency:    1.9458738867
  - # 11
    frequency:    2.0270161922
  - # 12
    frequency:    2.1086645606
  - # 13
    frequency:    2.2657059962
  - # 14
    frequency:    2.3173925197
  - # 15
    frequency:    2.3255719619
  - # 16
    frequency:    2.4048915244
  - # 17
    frequency:    2.4161766641
  - # 18
    frequency:    2.4435204565
  - # 19
    frequency:    2.5945093927
  - # 20
    frequency:    2.6118340152
  - # 21
    frequency:    2.6303306415
  - # 22
    frequency:    2.6548902871
  - # 23
    frequency:    2.7264839103
  - # 24
    frequency:    2.9214474215
  - # 25
    frequency:    2.9578654043
  - # 26
    frequency:    3.2514567071
  - # 27
    frequency:    3.3626976512
  - # 28
    frequency:    3.9421518063
  - # 29
    frequency:    3.9731435883
  - # 30
    frequency:    4.1788641809
  - # 31
    frequency:    4.2342352738
  - # 32
    frequency:    4.4321816953
  - # 33
    frequency:    4.4768149014
  - # 34
    frequency:    4.5166907864
  - # 35
    frequency:    4.6072733773
  - # 36
    frequency:    4.6488065181
  - # 37
    frequency:    4.6914137632
  - # 38
    frequency:    4.7343742040
  - # 39
    frequency:    4.8273286077
  - # 40
    frequency:    4.8509958808
  - # 41
    frequency:    4.8868255647
  - # 42
    frequency:    5.0904348489
  - # 43
    frequency:    5.1437273313
  - # 44
    frequency:    5.1994452676
  - # 45
    frequency:    5.3307219357
  - # 46
    frequency:    5.3565105215
  - # 47
    frequency:    5.5052600175
  - # 48
    frequency:    5.5959782105
  - # 49
    frequency:    5.6219040703
  - # 50
    frequency:    5.8133933517
  - # 51
    frequency:    5.8264985137
  - # 52
    frequency:    5.9194852904
  - # 53
    frequency:    5.9433715904
  - # 54
    frequency:    6.3838695792
  - # 55
    frequency:    6.4414786558
  - # 56
    frequency:    6.5864403727
  - # 57
    frequency:    6.7241400491
  - # 58
    frequency:    6.7516110815
  - # 59
    frequency:    6.8581068304
  - # 60
    frequency:    6.9535331890
  - # 61
    frequency:    7.0986945942
  - # 62
    frequency:    7.1203164421
  - # 63
    frequency:    7.4158788791
  - # 64
    frequency:    7.4848480987
  - # 65
    frequency:    7.5415340786
  - # 66
    frequency:    7.6056045272
  - # 67
    frequency:    7.6674272341
  - # 68
    frequency:    7.9948419714
  - # 69
    frequency:    8.0858959981
  - # 70
    frequency:    8.4078666331
  - # 71
    frequency:    8.4339376560
  - # 72
    frequency:    8.5586290985
  - # 73
    frequency:    8.6554679694
  - # 74
    frequency:    8.8441711738
  - # 75
    frequency:    9.1384609491
  - # 76
    frequency:    9.3281266398
  - # 77
    frequency:    9.3861165962
  - # 78
    frequency:    9.5940713083
  - # 79
    frequency:    9.8274723722
  - # 80
    frequency:    9.8357679611
  - # 81
    frequency:   10.0051029157
  - # 82
    frequency:   10.1426445195
  - # 83
    frequency:   10.2780841022
  - # 84
    frequency:   10.4529495934
  - # 85
    frequency:   10.5494133426
  - # 86
    frequency:   10.7160547458
  - # 87
    frequency:   10.7520631277
  - # 88
    frequency:   11.0611260162
  - # 89
    frequency:   11.1019643308
  - # 90
    frequency:   11.1935518172
  - # 91
    frequency:   11.2533536617
  - # 92
    frequency:   11.3477488397
  - # 93
    frequency:   11.3886640013
  - # 94
    frequency:   11.5120549706
  - # 95
    frequency:   11.6984852017
  - # 96
    frequency:   11.7562842460
  - # 97
    frequency:   11.8651979503
  - # 98
    frequency:   13.3766698476
  - # 99
    frequency:   13.7162373864
  - # 100
    frequency:   13.7837780719
  - # 101
    frequency:   13.9786522601
  - # 102
    frequency:   13.9973573401
  - # 103
    frequency:   14.1625108837
  - # 104
    frequency:   14.1889749857
  - # 105
    frequency:   14.2989569273
  - # 106
    frequency:   14.5024348801
  - # 107
    frequency:   14.5417471756
  - # 108
    frequency:   14.8624558083
  - # 109
    frequency:   15.1077493479
  - # 110
    frequency:   15.1679528738
  - # 111
    frequency:   15.2136356236
  - # 112
    frequency:   15.3960839316
  - # 113
    frequency:   16.0629788959
  - # 114
    frequency:   16.2574234849
  - # 115
    frequency:   17.2533304091
  - # 116
    frequency:   17.3904140049
  - # 117
    frequency:   17.4069283046
  - # 118
    frequency:   17.4720397810
  - # 119
    frequency:   17.5151475749
  - # 120
    frequency:   18.3599703734
  - # 121
    frequency:   18.7080148586
  - # 122
    frequency:   18.8483464342
  - # 123
    frequency:   19.3966412021
  - # 124
    frequency:   19.5124633793
  - # 125
    frequency:   19.6052050855
  - # 126
    frequency:   19.7384841203
  - # 127
    frequency:   20.4695137076
  - # 128
    frequency:   20.7080040777
  - # 129
    frequency:   20.7664713843
  - # 130
    frequency:   20.8020365865
  - # 131
    frequency:   21.0448534667
  - # 132
    frequency:   21.2357256278

- q-position: [    0.0200000,    0.0200000,    0.0000000 ]
  distance:    0.0052919
  band:
  - # 1
    frequency:    0.1263187777
  - # 2
    frequency:    0.1509949769
  - # 3
    frequency:    0.2648847318
  - # 4
    frequency:    1.0622052482
  - # 5
    frequency:    1.3083935596
  - # 6
    frequency:    1.3529181869
  - # 7
    frequency:    1.5492041740
  - # 8
    frequency:    1.6833757344
  - # 9
    frequency:    1.8257497649
  - # 10
    frequency:    1.9462663266
  - # 11
    frequency:    2.0275716312
  - # 12
    frequency:    2.1121024324
  - # 13
    frequency:    2.2645355853
  - # 14
    frequency:    2.3164431439
  - # 15
    frequency:    2.3264009949
  - # 16
    frequency:    2.4075909280
  - # 17
    frequency:    2.4150357375
  - # 18
    frequency:    2.4502489344
  - # 19
    frequency:    2.5934701324
  - # 20
    frequency:    2.6121767901
  - # 21
    frequency:    2.6336750192
  - # 22
    frequency:    2.6598570720
  - # 23
    frequency:    2.7274475415
  - # 24
    frequency:    2.9213313630
  - # 25
    frequency:    2.9592954883
  - # 26
    frequency:    3.2556674524
  - # 27
    frequency:    3.3655394365
  - # 28
    frequency:    3.9390575166
  - # 29
    frequency:    3.9761188499
  - # 30
    frequency:    4.1784340276
  - # 31
    frequency:    4.2346713670
  - # 32
    frequency:    4.4330807030
  - # 33
    frequency:    4.4761215769
  - # 34
    frequency:    4.5197524816
  - # 35
    frequency:    4.6135018592
  - # 36
    frequency:    4.6598804822
  - # 37
    frequency:    4.6914858981
  - # 38
    frequency:    4.7339479423
  - # 39
    frequency:    4.8297074606
  - # 40
    frequency:    4.8529444452
  - # 41
    frequency:    4.8949312056
  - # 42
    frequency:    5.0868727211
  - # 43
    frequency:    5.1435403052
  - # 44
    frequency:    5.2035656063
  - # 45
    frequency:    5.3340837107
  - # 46
    frequency:    5.3601470121
  - # 47
    frequency:    5.5073985868
  - # 48
    frequency:    5.5961261169
  - # 49
    frequency:    5.6237938197
  - # 50
    frequency:    5.8142618436
  - # 51
    frequency:    5.8320546224
  - # 52
    frequency:    5.9266584030
  - # 53
    frequency:    5.9464178455
  - # 54
    frequency:    6.3838109399
  - # 55
    frequency:    6.4420030985
  - # 56
    frequency:    6.5849232374
  - # 57
    frequency:    6.7307603485
  - # 58
    frequency:    6.7543130456
  - # 59
    frequency:    6.8576779674
  - # 60
    frequency:    6.9585302019
  - # 61
    frequency:    7.0958016631
  - # 62
    frequency:    7.1223383561
  - # 63
    frequency:    7.4063963533
  - # 64
    frequency:    7.4845746949